   48
Geometry Step: 0
    C      6.11000000      1.28400000     -2.02700000
    H      6.91100000      2.00700000     -1.82200000
    H      5.57400000      1.70400000     -2.88000000
    H      6.54100000      0.29600000     -2.29200000
    C      5.24600000      1.17900000     -0.79000000
    C      5.71400000      1.67600000      0.41600000
    H      6.65700000      2.16800000      0.62100000
    N      4.79700000      1.47400000      1.40400000
    H      4.83300000      1.84900000      2.35300000
    C      3.69200000      0.87900000      0.85400000
    C      3.91200000      0.67200000     -0.53000000
    C      2.87400000     -0.01400000     -1.29400000
    H      3.01500000     -0.23700000     -2.34100000
    C      1.74100000     -0.39900000     -0.62300000
    H      0.93100000     -0.85400000     -1.18200000
    C      2.49600000      0.57400000      1.58500000
    O      2.29200000      0.86500000      2.79400000
    C      1.50600000     -0.07500000      0.74700000
    N      0.29000000     -0.21600000      1.35300000
    H      0.31100000      0.16700000      2.31900000
    C     -0.85500000     -0.68900000      0.88400000
    H     -0.10900000     -2.61700000      1.06900000
    H     -0.87500000     -0.96800000     -0.16200000
    C     -2.16200000     -0.43900000      1.58200000
    H     -2.00200000     -0.39000000      2.66400000
    H     -2.83400000     -1.28400000      1.39600000
    C     -2.79600000      0.83400000      1.06700000
    C     -2.38700000      2.12200000      1.33100000
    H     -1.57500000      2.47400000      1.94800000
    N     -3.15600000      3.02100000      0.63100000
    H     -3.06200000      4.03300000      0.72100000
    C     -4.07900000      2.33400000     -0.12400000
    C     -3.87400000      0.94100000      0.12300000
    C     -5.06800000      2.78900000     -1.00000000
    H     -5.21600000      3.85300000     -1.17000000
    C     -5.66300000      0.46000000     -1.41300000
    H     -6.29700000     -0.26100000     -1.92900000
    C     -5.85400000      1.83700000     -1.64200000
    H     -6.63500000      2.16300000     -2.32300000
    C     -4.68400000      0.00300000     -0.54100000
    H     -4.53900000     -1.06500000     -0.38600000
    C     -0.24600000     -5.54900000     -0.28600000
    H     -0.20900000     -5.78200000     -1.35100000
    H     -1.23900000     -5.83700000      0.08900000
    H      0.57300000     -6.03200000      0.27900000
    C     -0.19400000     -4.05100000     -0.14900000
    O     -0.49000000     -3.30500000     -1.06200000
    O      0.08200000     -3.59500000      1.09000000
