   48
Geometry Step: 0
    C      6.00339600      1.13239935     -2.05599161
    H      6.90624861      1.75299565     -2.03772894
    H      5.35129913      1.49723616     -2.86225933
    H      6.30495055      0.10712477     -2.32010314
    C      5.30906529      1.17609893     -0.73678487
    C      5.80637493      1.71290733      0.45548370
    H      6.77173415      2.19083149      0.64040766
    N      4.87509304      1.57306391      1.43622729
    H      4.99146292      1.89150619      2.40474795
    C      3.75995500      0.95937932      0.94162040
    C      3.99232194      0.68422869     -0.43986188
    C      2.98144815      0.05873836     -1.21548243
    H      3.14730483     -0.16562086     -2.27612822
    C      1.76868680     -0.24687768     -0.61403102
    H      0.98144676     -0.72584875     -1.20853526
    C      2.52574708      0.64327558      1.53737194
    O      2.28010592      0.95029527      2.91985870
    C      1.52186566      0.05626557      0.75630189
    N      0.27404686     -0.13644019      1.34883111
    H      0.23525469      0.12091783      2.34887837
    C     -0.80520727     -0.52547136      0.76700336
    H     -0.18083927     -2.55341757      1.07393058
    H     -0.78732969     -0.77447899     -0.30295499
    C     -2.11011444     -0.47815360      1.48458807
    H     -1.95135466     -0.46088216      2.57747067
    H     -2.72180909     -1.36065901      1.23441186
    C     -2.81141445      0.77571948      1.03116553
    C     -2.43866900      2.08332139      1.35442203
    H     -1.64814558      2.42175389      2.02888540
    N     -3.23767673      2.95888716      0.68696592
    H     -3.17277011      3.98073797      0.75961605
    C     -4.12998128      2.28379304     -0.09248557
    C     -3.89148487      0.88431893      0.08951132
    C     -5.13558661      2.76237030     -0.95499024
    H     -5.30559437      3.83658678     -1.09280472
    C     -5.68260159      0.42840603     -1.45205421
    H     -6.31645284     -0.27999270     -1.99945033
    C     -5.90263989      1.81611298     -1.62743247
    H     -6.69694838      2.14517225     -2.30878246
    C     -4.68880984     -0.05260246     -0.60496090
    H     -4.53206264     -1.13132717     -0.48053093
    C     -0.20472191     -5.51055118     -0.25714835
    H     -0.05258542     -5.76705996     -1.30891357
    H     -1.16925403     -5.92575791      0.06360365
    H      0.57772888     -5.96650782      0.35803629
    C     -0.24294774     -4.05506182     -0.06930082
    O     -0.46977419     -3.22841362     -1.08525774
    O     -0.08027736     -3.53959390      1.10563426
